 Entering Link 1 = C:\G09W\l1.exe PID=      7352.
  
 Copyright (c) 1988,1990,1992,1993,1995,1998,2003,2009,2013,
            Gaussian, Inc.  All Rights Reserved.
  
 This is part of the Gaussian(R) 09 program.  It is based on
 the Gaussian(R) 03 system (copyright 2003, Gaussian, Inc.),
 the Gaussian(R) 98 system (copyright 1998, Gaussian, Inc.),
 the Gaussian(R) 94 system (copyright 1995, Gaussian, Inc.),
 the Gaussian 92(TM) system (copyright 1992, Gaussian, Inc.),
 the Gaussian 90(TM) system (copyright 1990, Gaussian, Inc.),
 the Gaussian 88(TM) system (copyright 1988, Gaussian, Inc.),
 the Gaussian 86(TM) system (copyright 1986, Carnegie Mellon
 University), and the Gaussian 82(TM) system (copyright 1983,
 Carnegie Mellon University). Gaussian is a federally registered
 trademark of Gaussian, Inc.
  
 This software contains proprietary and confidential information,
 including trade secrets, belonging to Gaussian, Inc.
  
 This software is provided under written license and may be
 used, copied, transmitted, or stored only in accord with that
 written license.
  
 The following legend is applicable only to US Government
 contracts under FAR:
  
                    RESTRICTED RIGHTS LEGEND
  
 Use, reproduction and disclosure by the US Government is
 subject to restrictions as set forth in subparagraphs (a)
 and (c) of the Commercial Computer Software - Restricted
 Rights clause in FAR 52.227-19.
  
 Gaussian, Inc.
 340 Quinnipiac St., Bldg. 40, Wallingford CT 06492
  
  
 ---------------------------------------------------------------
 Warning -- This program may not be used in any manner that
 competes with the business of Gaussian, Inc. or will provide
 assistance to any competitor of Gaussian, Inc.  The licensee
 of this program is prohibited from giving any competitor of
 Gaussian, Inc. access to this program.  By using this program,
 the user acknowledges that Gaussian, Inc. is engaged in the
 business of creating and licensing software in the field of
 computational chemistry and represents and warrants to the
 licensee that it is not a competitor of Gaussian, Inc. and that
 it will not use this program in any manner prohibited above.
 ---------------------------------------------------------------
  

 Cite this work as:
 Gaussian 09, Revision D.01,
 M. J. Frisch, G. W. Trucks, H. B. Schlegel, G. E. Scuseria, 
 M. A. Robb, J. R. Cheeseman, G. Scalmani, V. Barone, B. Mennucci, 
 G. A. Petersson, H. Nakatsuji, M. Caricato, X. Li, H. P. Hratchian, 
 A. F. Izmaylov, J. Bloino, G. Zheng, J. L. Sonnenberg, M. Hada, 
 M. Ehara, K. Toyota, R. Fukuda, J. Hasegawa, M. Ishida, T. Nakajima, 
 Y. Honda, O. Kitao, H. Nakai, T. Vreven, J. A. Montgomery, Jr., 
 J. E. Peralta, F. Ogliaro, M. Bearpark, J. J. Heyd, E. Brothers, 
 K. N. Kudin, V. N. Staroverov, T. Keith, R. Kobayashi, J. Normand, 
 K. Raghavachari, A. Rendell, J. C. Burant, S. S. Iyengar, J. Tomasi, 
 M. Cossi, N. Rega, J. M. Millam, M. Klene, J. E. Knox, J. B. Cross, 
 V. Bakken, C. Adamo, J. Jaramillo, R. Gomperts, R. E. Stratmann, 
 O. Yazyev, A. J. Austin, R. Cammi, C. Pomelli, J. W. Ochterski, 
 R. L. Martin, K. Morokuma, V. G. Zakrzewski, G. A. Voth, 
 P. Salvador, J. J. Dannenberg, S. Dapprich, A. D. Daniels, 
 O. Farkas, J. B. Foresman, J. V. Ortiz, J. Cioslowski, 
 and D. J. Fox, Gaussian, Inc., Wallingford CT, 2013.
 
 ******************************************
 Gaussian 09:  IA32W-G09RevD.01 24-Apr-2013
                18-Feb-2025 
 ******************************************
 %chk=D:\Gaussian\Conformer3D_COMPOUND_CID_9064.chk
 ------------------------------
 # hf/6-31++g geom=connectivity
 ------------------------------
 1/38=1,57=2/1;
 2/12=2,17=6,18=5,40=1/2;
 3/5=1,6=6,7=1010,11=9,16=1,25=1,30=1/1,2,3;
 4//1;
 5/5=2,38=5/2;
 6/7=2,8=2,9=2,10=2,28=1/1;
 99/5=1,9=1/99;
 ----
 9064
 ----
 Symbolic Z-matrix:
 Charge =  0 Multiplicity = 1
 O                     0.4056    0.6852   -0.3567 
 O                    -0.6774   -2.8272    0.0639 
 O                     4.3934   -1.9411    0.4537 
 O                     4.6486    2.7719   -0.1473 
 O                    -4.1299    0.979     2.1223 
 O                    -5.8277    0.7778   -0.0685 
 C                     0.0772   -1.6546    0.3517 
 C                    -0.3381   -0.5205   -0.596 
 C                     1.5584   -1.9631    0.1509 
 C                     2.3661   -0.7033    0.0709 
 C                     1.7552    0.5287   -0.1865 
 C                    -1.808    -0.1719   -0.4515 
 C                     3.7578   -0.7555    0.2274 
 C                     2.5213    1.696    -0.2476 
 C                    -2.3033    0.2482    0.7808 
 C                    -2.6566   -0.2741   -1.5515 
 C                     4.5224    0.4089    0.1541 
 C                     3.9038    1.6348   -0.0794 
 C                    -3.6545    0.5681    0.9138 
 C                    -4.0077    0.0457   -1.4185 
 C                    -4.5067    0.4668   -0.186 
 H                    -0.0919   -1.3767    1.3993 
 H                    -0.1546   -0.8269   -1.6358 
 H                     1.7034   -2.541    -0.7711 
 H                     1.8997   -2.5978    0.978 
 H                     2.0345    2.6508   -0.4329 
 H                    -1.6415    0.34      1.6382 
 H                    -0.3756   -3.5253    0.6699 
 H                    -2.2827   -0.6009   -2.5179 
 H                     5.6018    0.3689    0.2791 
 H                    -4.6605   -0.0374   -2.2834 
 H                     5.3492   -1.781     0.5349 
 H                     4.0583    3.5263   -0.3156 
 H                    -3.3995    0.988     2.7646 
 H                    -6.261     0.6492   -0.9297 
 
                          Input orientation:                          
 ---------------------------------------------------------------------
 Center     Atomic      Atomic             Coordinates (Angstroms)
 Number     Number       Type             X           Y           Z
 ---------------------------------------------------------------------
      1          8           0        0.405600    0.685200   -0.356700
      2          8           0       -0.677400   -2.827200    0.063900
      3          8           0        4.393400   -1.941100    0.453700
      4          8           0        4.648600    2.771900   -0.147300
      5          8           0       -4.129900    0.979000    2.122300
      6          8           0       -5.827700    0.777800   -0.068500
      7          6           0        0.077200   -1.654600    0.351700
      8          6           0       -0.338100   -0.520500   -0.596000
      9          6           0        1.558400   -1.963100    0.150900
     10          6           0        2.366100   -0.703300    0.070900
     11          6           0        1.755200    0.528700   -0.186500
     12          6           0       -1.808000   -0.171900   -0.451500
     13          6           0        3.757800   -0.755500    0.227400
     14          6           0        2.521300    1.696000   -0.247600
     15          6           0       -2.303300    0.248200    0.780800
     16          6           0       -2.656600   -0.274100   -1.551500
     17          6           0        4.522400    0.408900    0.154100
     18          6           0        3.903800    1.634800   -0.079400
     19          6           0       -3.654500    0.568100    0.913800
     20          6           0       -4.007700    0.045700   -1.418500
     21          6           0       -4.506700    0.466800   -0.186000
     22          1           0       -0.091900   -1.376700    1.399300
     23          1           0       -0.154600   -0.826900   -1.635800
     24          1           0        1.703400   -2.541000   -0.771100
     25          1           0        1.899700   -2.597800    0.978000
     26          1           0        2.034500    2.650800   -0.432900
     27          1           0       -1.641500    0.340000    1.638200
     28          1           0       -0.375600   -3.525300    0.669900
     29          1           0       -2.282700   -0.600900   -2.517900
     30          1           0        5.601800    0.368900    0.279100
     31          1           0       -4.660500   -0.037400   -2.283400
     32          1           0        5.349200   -1.781000    0.534900
     33          1           0        4.058300    3.526300   -0.315600
     34          1           0       -3.399500    0.988000    2.764600
     35          1           0       -6.261000    0.649200   -0.929700
 ---------------------------------------------------------------------
                    Distance matrix (angstroms):
                    1          2          3          4          5
     1  O    0.000000
     2  O    3.699560   0.000000
     3  O    4.843217   5.162376   0.000000
     4  O    4.732992   7.730511   4.758014   0.000000
     5  O    5.177115   5.535696   9.162852   9.242707   0.000000
     6  O    6.240646   6.288016  10.589428  10.664685   2.778959
     7  C    2.466646   1.423812   4.326901   6.382836   5.269778
     8  C    1.436686   2.423109   5.050452   5.992362   4.900551
     9  C    2.932592   2.398549   2.851210   5.662021   6.700681
    10  C    2.440150   3.711320   2.405957   4.163464   7.016865
    11  C    1.369263   4.152386   3.670132   3.661318   6.337802
    12  C    2.375633   2.931640   6.512052   7.102547   3.652429
    13  C    3.695137   4.897925   1.364128   3.657386   8.295478
    14  C    2.347298   5.548698   4.150310   2.386006   7.097110
    15  C    2.970356   3.551842   7.053072   7.453814   2.381209
    16  C    3.424160   3.611796   7.516796   8.038398   4.151828
    17  C    4.157559   6.125226   2.372531   2.385485   8.891632
    18  C    3.635387   6.396669   3.648419   1.361005   8.355710
    19  C    4.255854   4.594945   8.442539   8.655873   1.362100
    20  C    4.584059   4.641332   8.833515   9.164041   3.663775
    21  C    4.920115   5.057314   9.242239   9.441107   2.394280
    22  H    2.753629   2.056709   4.618509   6.486539   4.730486
    23  H    2.058244   2.676472   5.127549   6.183666   5.760868
    24  H    3.502053   2.539162   3.015977   6.106573   7.401997
    25  H    3.846017   2.744020   2.631480   6.136483   7.103450
    26  H    2.553959   6.132674   5.237940   2.632442   6.879229
    27  H    2.879133   3.665933   6.559457   6.976210   2.614347
    28  H    4.403691   0.972452   5.029890   8.097230   6.040940
    29  H    3.681276   3.768168   7.429459   8.064642   5.238291
    30  H    5.244500   7.049093   2.612818   2.620079   9.923487
    31  H    5.468061   5.399804   9.648259   9.955623   4.552450
    32  H    5.596095   6.134842   0.972512   4.656730   9.999539
    33  H    4.627716   7.933337   5.531417   0.972573   8.915083
    34  H    4.930820   5.409192   8.639975   8.742618   0.972684
    35  H    6.691276   6.652006  11.051683  11.141695   3.736985
                    6          7          8          9         10
     6  O    0.000000
     7  C    6.400077   0.000000
     8  C    5.665646   1.535185   0.000000
     9  C    7.881316   1.526252   2.497132   0.000000
    10  C    8.327752   2.494571   2.791213   1.498624   0.000000
    11  C    7.587908   2.805734   2.377060   2.522228   1.399027
    12  C    4.148085   2.529330   1.517567   3.860561   4.240094
    13  C    9.711868   3.790864   4.184449   2.510281   1.401444
    14  C    8.401248   4.190383   3.634615   3.804601   2.425318
    15  C    3.663766   3.077589   2.519621   4.494369   4.817946
    16  C    3.655360   3.605775   2.519749   4.849444   5.295650
    17  C   10.359064   4.904781   5.005087   3.796273   2.427662
    18  C    9.769169   5.064471   4.786012   4.301026   2.802467
    19  C    2.394094   4.379719   3.803032   5.844939   6.210842
    20  C    2.381359   4.765610   3.803032   6.122072   6.588220
    21  C    1.362192   5.079527   4.303497   6.542427   6.976425
    22  H    6.300453   1.096945   2.185158   2.150781   2.874000
    23  H    6.100455   2.165404   1.099426   2.723530   3.046642
    24  H    8.259876   2.165851   2.877638   1.097760   2.127270
    25  H    8.497208   2.145550   3.435171   1.097007   2.151625
    26  H    8.090433   4.794068   3.963960   4.674994   3.407897
    27  H    4.541890   2.930434   2.725979   4.213750   4.427839
    28  H    6.984791   1.950845   3.260787   2.539722   3.979875
    29  H    4.524091   3.861867   2.735257   4.871564   5.322003
    30  H   11.442093   5.883964   6.069534   4.669448   3.415072
    31  H    2.633000   5.657286   4.665174   6.950457   7.440380
    32  H   11.481927   5.276696   5.934069   3.814549   3.205561
    33  H   10.263932   6.567813   5.981935   6.049846   4.571919
    34  H    3.737218   4.989275   4.789715   6.334129   6.584729
    35  H    0.972601   6.864566   6.046511   8.314735   8.789614
                   11         12         13         14         15
    11  C    0.000000
    12  C    3.641079   0.000000
    13  C    2.414724   5.637342   0.000000
    14  C    1.397581   4.719477   2.786469   0.000000
    15  C    4.181599   1.392971   6.168517   5.141060   0.000000
    16  C    4.687397   1.393042   6.673886   5.691406   2.416038
    17  C    2.790655   6.385769   1.394924   2.412963   6.856293
    18  C    2.418969   6.002273   2.414327   1.394038   6.417998
    19  C    5.520604   2.412718   7.560771   6.384474   1.394907
    20  C    5.912878   2.412699   7.978339   6.835374   2.789786
    21  C    6.262206   2.785931   8.364621   7.134950   2.416084
    22  H    3.091454   2.796784   4.071785   4.356900   2.813029
    23  H    2.754171   2.136662   4.333992   3.930975   3.407742
    24  H    3.125300   4.247906   2.899236   4.346859   5.122663
    25  H    3.339452   4.655695   2.722132   4.508348   5.079745
    26  H    2.154537   4.767891   3.874098   1.087637   5.105102
    27  H    3.860403   2.157918   5.687083   4.766957   1.086987
    28  H    4.659254   3.815049   4.995257   6.041176   4.238824
    29  H    4.797505   2.163190   6.636883   5.788646   3.406291
    30  H    3.877970   7.465345   2.160390   3.395304   7.921924
    31  H    6.773379   3.392743   8.814055   7.663381   3.876504
    32  H    4.332663   7.401871   1.918010   4.549599   7.920788
    33  H    3.782399   6.936038   4.326541   2.391023   7.240027
    34  H    5.957422   3.771146   7.791285   6.680605   2.384202
    35  H    8.051480   4.553250  10.182751   8.870730   4.330127
                   16         17         18         19         20
    16  C    0.000000
    17  C    7.410371   0.000000
    18  C    6.989265   1.392846   0.000000
    19  C    2.789769   8.213658   7.697545   0.000000
    20  C    1.394788   8.681451   8.179869   2.416045   0.000000
    21  C    2.415863   9.035689   8.491884   1.395015   1.394770
    22  H    4.062097   5.102025   5.217404   4.087796   5.029583
    23  H    2.563727   5.158030   4.995294   4.549262   3.956644
    24  H    4.975687   4.183858   4.770484   6.419695   6.302921
    25  H    5.705946   4.074017   4.800981   6.393448   6.901353
    26  H    5.640277   3.400049   2.156734   6.206123   6.653280
    27  H    3.403195   6.340423   5.947858   2.151500   3.876716
    28  H    4.550591   6.303521   6.745469   5.250390   5.505053
    29  H    1.086521   7.380289   7.015513   3.876204   2.145320
    30  H    8.483261   1.087350   2.148076   9.280173   9.763647
    31  H    2.146467   9.511374   9.000061   3.405988   1.086787
    32  H    8.409319   2.371554   3.759553   9.312811   9.731607
    33  H    7.814114   3.186564   1.912442   8.351626   8.853887
    34  H    4.557797   8.361015   7.864151   1.914889   4.330839
    35  H    3.772376  10.840391  10.247808   3.193574   2.383380
                   21         22         23         24         25
    21  C    0.000000
    22  H    5.040052   0.000000
    23  H    4.766168   3.085133   0.000000
    24  H    6.924922   3.047841   2.671705   0.000000
    25  H    7.196432   2.373826   3.766721   1.760997   0.000000
    26  H    6.900588   4.909103   4.281767   5.213328   5.436599
    27  H    3.398993   2.324950   3.780424   5.029239   4.648293
    28  H    5.808220   2.286699   3.556186   2.714327   2.476322
    29  H    3.394690   4.554770   2.314732   4.764902   5.805290
    30  H   10.119668   6.059718   6.183277   4.976742   4.795343
    31  H    2.162628   6.018979   4.620155   7.003877   7.760709
    32  H   10.134647   5.524148   5.992834   3.946529   3.572471
    33  H    9.095964   6.648643   6.200146   6.524198   6.620994
    34  H    3.194305   4.289064   5.760795   7.141051   6.643148
    35  H    1.914139   6.898283   6.321833   8.581037   8.987733
                   26         27         28         29         30
    26  H    0.000000
    27  H    4.810637   0.000000
    28  H    6.720786   4.180987   0.000000
    29  H    5.793012   4.309246   4.727707   0.000000
    30  H    4.294140   7.369761   7.144706   8.421939   0.000000
    31  H    7.448073   4.963440   6.264806   2.454884  10.585192
    32  H    5.618249   7.388220   5.986163   8.304103   2.179750
    33  H    2.208173   6.815978   8.387833   7.879860   3.564440
    34  H    6.520527   2.186148   5.822509   5.628201   9.358654
    35  H    8.548013   5.294289   7.390744   4.462286  11.927522
                   31         32         33         34         35
    31  H    0.000000
    32  H   10.544053   0.000000
    33  H    9.622353   5.527857   0.000000
    34  H    5.303194   9.443446   8.458687   0.000000
    35  H    2.205793  11.951890  10.730460   4.685170   0.000000
 Stoichiometry    C15H14O6
 Framework group  C1[X(C15H14O6)]
 Deg. of freedom    99
 Full point group                 C1      NOp   1
 Largest Abelian subgroup         C1      NOp   1
 Largest concise Abelian subgroup C1      NOp   1
                         Standard orientation:                         
 ---------------------------------------------------------------------
 Center     Atomic      Atomic             Coordinates (Angstroms)
 Number     Number       Type             X           Y           Z
 ---------------------------------------------------------------------
      1          8           0       -0.406880   -0.715477   -0.373599
      2          8           0        0.661560    2.804796    0.017379
      3          8           0       -4.405002    1.900294    0.419820
      4          8           0       -4.640715   -2.818464   -0.142726
      5          8           0        4.132423   -0.969865    2.102796
      6          8           0        5.827056   -0.779190   -0.091394
      7          6           0       -0.087728    1.631363    0.315479
      8          6           0        0.331417    0.491402   -0.623456
      9          6           0       -1.570440    1.931915    0.113788
     10          6           0       -2.372840    0.668079    0.044864
     11          6           0       -1.756957   -0.563353   -0.203213
     12          6           0        1.802942    0.150247   -0.477727
     13          6           0       -3.764585    0.715617    0.202440
     14          6           0       -2.518132   -1.734362   -0.254032
     15          6           0        2.301319   -0.257743    0.757398
     16          6           0        2.649946    0.247146   -1.579435
     17          6           0       -4.524285   -0.452584    0.139396
     18          6           0       -3.900704   -1.677690   -0.084839
     19          6           0        3.654010   -0.570797    0.891523
     20          6           0        4.002537   -0.065809   -1.445310
     21          6           0        4.504619   -0.474781   -0.209981
     22          1           0        0.083652    1.362681    1.365111
     23          1           0        0.145523    0.788584   -1.665504
     24          1           0       -1.718870    2.501704   -0.812703
     25          1           0       -1.913580    2.571835    0.936091
     26          1           0       -2.027456   -2.688549   -0.432121
     27          1           0        1.640814   -0.345412    1.616228
     28          1           0        0.357417    3.506491    0.618033
     29          1           0        2.273644    0.564511   -2.548044
     30          1           0       -5.603715   -0.416170    0.265234
     31          1           0        4.654072    0.013062   -2.311559
     32          1           0       -5.360025    1.736788    0.503346
     33          1           0       -4.047377   -3.571682   -0.305550
     34          1           0        3.402741   -0.976772    2.745937
     35          1           0        6.258902   -0.655727   -0.954075
 ---------------------------------------------------------------------
 Rotational constants (GHZ):      0.6635738      0.1472631      0.1324767
 Standard basis: 6-31++G (6D, 7F)
 There are   315 symmetry adapted cartesian basis functions of A   symmetry.
 There are   315 symmetry adapted basis functions of A   symmetry.
   315 basis functions,   616 primitive gaussians,   315 cartesian basis functions
    76 alpha electrons       76 beta electrons
       nuclear repulsion energy      1641.5222918879 Hartrees.
 NAtoms=   35 NActive=   35 NUniq=   35 SFac= 1.00D+00 NAtFMM=   60 NAOKFM=F Big=F
 Integral buffers will be    262144 words long.
 Raffenetti 1 integral format.
 Two-electron integral symmetry is turned on.
 One-electron integrals computed using PRISM.
 NBasis=   315 RedAO= T EigKep=  1.10D-06  NBF=   315
 NBsUse=   312 1.00D-06 EigRej=  8.27D-07 NBFU=   312
 ExpMin= 3.60D-02 ExpMax= 5.48D+03 ExpMxC= 8.25D+02 IAcc=3 IRadAn=         5 AccDes= 0.00D+00
 Harris functional with IExCor=  205 and IRadAn=       5 diagonalized for initial guess.
 HarFok:  IExCor=  205 AccDes= 0.00D+00 IRadAn=         5 IDoV= 1 UseB2=F ITyADJ=14
 ICtDFT=  3500011 ScaDFX=  1.000000  1.000000  1.000000  1.000000
 FoFCou: FMM=F IPFlag=           0 FMFlag=      100000 FMFlg1=           0
         NFxFlg=           0 DoJE=T BraDBF=F KetDBF=T FulRan=T
         wScrn=  0.000000 ICntrl=     500 IOpCl=  0 I1Cent=   200000004 NGrid=           0
         NMat0=    1 NMatS0=      1 NMatT0=    0 NMatD0=    1 NMtDS0=    0 NMtDT0=    0
 Petite list used in FoFCou.
 Requested convergence on RMS density matrix=1.00D-08 within 128 cycles.
 Requested convergence on MAX density matrix=1.00D-06.
 Requested convergence on             energy=1.00D-06.
 No special actions if energy rises.
 Initial convergence to 1.0D-05 achieved.  Increase integral accuracy.
 SCF Done:  E(RHF) =  -1024.91951055     A.U. after   18 cycles
            NFock= 18  Conv=0.29D-08     -V/T= 2.0000

 **********************************************************************

            Population analysis using the SCF density.

 **********************************************************************

 Orbital symmetries:
       Occupied  (A) (A) (A) (A) (A) (A) (A) (A) (A) (A) (A) (A)
                 (A) (A) (A) (A) (A) (A) (A) (A) (A) (A) (A) (A)
                 (A) (A) (A) (A) (A) (A) (A) (A) (A) (A) (A) (A)
                 (A) (A) (A) (A) (A) (A) (A) (A) (A) (A) (A) (A)
                 (A) (A) (A) (A) (A) (A) (A) (A) (A) (A) (A) (A)
                 (A) (A) (A) (A) (A) (A) (A) (A) (A) (A) (A) (A)
                 (A) (A) (A) (A)
       Virtual   (A) (A) (A) (A) (A) (A) (A) (A) (A) (A) (A) (A)
                 (A) (A) (A) (A) (A) (A) (A) (A) (A) (A) (A) (A)
                 (A) (A) (A) (A) (A) (A) (A) (A) (A) (A) (A) (A)
                 (A) (A) (A) (A) (A) (A) (A) (A) (A) (A) (A) (A)
                 (A) (A) (A) (A) (A) (A) (A) (A) (A) (A) (A) (A)
                 (A) (A) (A) (A) (A) (A) (A) (A) (A) (A) (A) (A)
                 (A) (A) (A) (A) (A) (A) (A) (A) (A) (A) (A) (A)
                 (A) (A) (A) (A) (A) (A) (A) (A) (A) (A) (A) (A)
                 (A) (A) (A) (A) (A) (A) (A) (A) (A) (A) (A) (A)
                 (A) (A) (A) (A) (A) (A) (A) (A) (A) (A) (A) (A)
                 (A) (A) (A) (A) (A) (A) (A) (A) (A) (A) (A) (A)
                 (A) (A) (A) (A) (A) (A) (A) (A) (A) (A) (A) (A)
                 (A) (A) (A) (A) (A) (A) (A) (A) (A) (A) (A) (A)
                 (A) (A) (A) (A) (A) (A) (A) (A) (A) (A) (A) (A)
                 (A) (A) (A) (A) (A) (A) (A) (A) (A) (A) (A) (A)
                 (A) (A) (A) (A) (A) (A) (A) (A) (A) (A) (A) (A)
                 (A) (A) (A) (A) (A) (A) (A) (A) (A) (A) (A) (A)
                 (A) (A) (A) (A) (A) (A) (A) (A) (A) (A) (A) (A)
                 (A) (A) (A) (A) (A) (A) (A) (A) (A) (A) (A) (A)
                 (A) (A) (A) (A) (A) (A) (A) (A)
 The electronic state is 1-A.
 Alpha  occ. eigenvalues --  -20.62019 -20.61410 -20.61337 -20.59704 -20.59580
 Alpha  occ. eigenvalues --  -20.58618 -11.34089 -11.33766 -11.33740 -11.32096
 Alpha  occ. eigenvalues --  -11.31942 -11.31780 -11.31340 -11.25979 -11.25960
 Alpha  occ. eigenvalues --  -11.25621 -11.25602 -11.25145 -11.24978 -11.24932
 Alpha  occ. eigenvalues --  -11.24755  -1.44209  -1.43775  -1.43300  -1.42647
 Alpha  occ. eigenvalues --   -1.40503  -1.39139  -1.17705  -1.16638  -1.10163
 Alpha  occ. eigenvalues --   -1.06766  -1.02991  -1.02488  -1.00500  -0.93663
 Alpha  occ. eigenvalues --   -0.88994  -0.87496  -0.86331  -0.82623  -0.80876
 Alpha  occ. eigenvalues --   -0.77390  -0.74799  -0.73574  -0.72543  -0.71357
 Alpha  occ. eigenvalues --   -0.70205  -0.68861  -0.68272  -0.65871  -0.65074
 Alpha  occ. eigenvalues --   -0.63844  -0.62836  -0.62306  -0.61616  -0.61252
 Alpha  occ. eigenvalues --   -0.60238  -0.59604  -0.59038  -0.57811  -0.57148
 Alpha  occ. eigenvalues --   -0.55756  -0.55653  -0.55301  -0.53924  -0.53832
 Alpha  occ. eigenvalues --   -0.52011  -0.50923  -0.50186  -0.48192  -0.46672
 Alpha  occ. eigenvalues --   -0.45264  -0.44855  -0.34312  -0.33219  -0.32505
 Alpha  occ. eigenvalues --   -0.30992
 Alpha virt. eigenvalues --    0.03350   0.04069   0.04124   0.04291   0.05190
 Alpha virt. eigenvalues --    0.05640   0.07044   0.07190   0.07699   0.08334
 Alpha virt. eigenvalues --    0.08928   0.09437   0.10188   0.10962   0.11226
 Alpha virt. eigenvalues --    0.11866   0.12308   0.12704   0.13296   0.13391
 Alpha virt. eigenvalues --    0.13814   0.14452   0.14660   0.15405   0.15515
 Alpha virt. eigenvalues --    0.15888   0.16238   0.16372   0.16455   0.17479
 Alpha virt. eigenvalues --    0.17719   0.18356   0.18692   0.18771   0.19051
 Alpha virt. eigenvalues --    0.19166   0.19635   0.19760   0.20191   0.20629
 Alpha virt. eigenvalues --    0.21162   0.21528   0.22091   0.22187   0.22460
 Alpha virt. eigenvalues --    0.23159   0.23433   0.23577   0.23917   0.24579
 Alpha virt. eigenvalues --    0.24726   0.25500   0.25927   0.26210   0.27019
 Alpha virt. eigenvalues --    0.27266   0.27755   0.28678   0.28759   0.28962
 Alpha virt. eigenvalues --    0.29149   0.29985   0.30890   0.31178   0.31798
 Alpha virt. eigenvalues --    0.32190   0.32413   0.33046   0.33239   0.34053
 Alpha virt. eigenvalues --    0.34567   0.35523   0.35604   0.35841   0.36209
 Alpha virt. eigenvalues --    0.36815   0.37021   0.37726   0.37794   0.38135
 Alpha virt. eigenvalues --    0.38980   0.39134   0.39405   0.39871   0.40187
 Alpha virt. eigenvalues --    0.40896   0.41069   0.41377   0.41577   0.41920
 Alpha virt. eigenvalues --    0.42514   0.42728   0.43605   0.43915   0.44508
 Alpha virt. eigenvalues --    0.45083   0.45505   0.45609   0.46493   0.46868
 Alpha virt. eigenvalues --    0.47475   0.47721   0.48195   0.48470   0.48883
 Alpha virt. eigenvalues --    0.49267   0.49539   0.49999   0.50656   0.50920
 Alpha virt. eigenvalues --    0.51160   0.51900   0.52551   0.52672   0.53174
 Alpha virt. eigenvalues --    0.53439   0.54310   0.55127   0.56178   0.57555
 Alpha virt. eigenvalues --    0.58312   0.59132   0.59530   0.60231   0.60447
 Alpha virt. eigenvalues --    0.62464   0.62836   0.63275   0.64999   0.66018
 Alpha virt. eigenvalues --    0.67073   0.68228   0.69864   0.71418   0.82274
 Alpha virt. eigenvalues --    0.84494   0.85578   0.89299   0.90084   0.91886
 Alpha virt. eigenvalues --    0.93938   0.95369   0.96185   0.96486   0.97018
 Alpha virt. eigenvalues --    0.97521   0.98300   0.99133   0.99964   1.00996
 Alpha virt. eigenvalues --    1.01069   1.02627   1.03921   1.04498   1.05291
 Alpha virt. eigenvalues --    1.06174   1.06576   1.07510   1.08466   1.09097
 Alpha virt. eigenvalues --    1.10568   1.12690   1.12999   1.13552   1.16758
 Alpha virt. eigenvalues --    1.18535   1.19223   1.19390   1.20685   1.24003
 Alpha virt. eigenvalues --    1.25869   1.28744   1.29013   1.30806   1.32761
 Alpha virt. eigenvalues --    1.33873   1.34895   1.37304   1.38403   1.38997
 Alpha virt. eigenvalues --    1.39852   1.41064   1.42113   1.42416   1.43128
 Alpha virt. eigenvalues --    1.44303   1.44850   1.45913   1.47026   1.47962
 Alpha virt. eigenvalues --    1.49658   1.50228   1.50575   1.51191   1.51940
 Alpha virt. eigenvalues --    1.52746   1.53281   1.54968   1.55781   1.56289
 Alpha virt. eigenvalues --    1.57436   1.57940   1.58613   1.61105   1.61749
 Alpha virt. eigenvalues --    1.63553   1.64641   1.65477   1.66256   1.66939
 Alpha virt. eigenvalues --    1.67615   1.68667   1.71185   1.71413   1.72859
 Alpha virt. eigenvalues --    1.73495   1.75648   1.78720   1.81113   1.82330
 Alpha virt. eigenvalues --    1.86290   1.88341   1.89537   1.92782   1.96510
 Alpha virt. eigenvalues --    2.03927   2.09988   2.13319   2.15883   2.19606
 Alpha virt. eigenvalues --    2.27470   2.39371   2.43976   2.47064   2.64800
 Alpha virt. eigenvalues --    2.68746
          Condensed to atoms (all electrons):
               1          2          3          4          5          6
     1  O    8.864917   0.027167   0.001799   0.000221   0.000181   0.000201
     2  O    0.027167   8.463020   0.000977  -0.000003  -0.000150   0.000050
     3  O    0.001799   0.000977   8.612840   0.000155   0.000000   0.000000
     4  O    0.000221  -0.000003   0.000155   8.632016   0.000000   0.000000
     5  O    0.000181  -0.000150   0.000000   0.000000   8.619790   0.032232
     6  O    0.000201   0.000050   0.000000   0.000000   0.032232   8.632037
     7  C   -0.034867   0.349983   0.035472  -0.001578  -0.002094   0.000915
     8  C   -0.543765   0.011766  -0.003071   0.014473   0.008422   0.009910
     9  C    0.216384  -0.386768  -0.119754  -0.006749   0.001169  -0.000232
    10  C   -0.419438   0.105059  -0.063880   0.191523  -0.000462  -0.001164
    11  C   -0.370087  -0.087544   0.204892   0.099530   0.002423   0.000338
    12  C   -0.565447  -0.491591  -0.007390  -0.000441   0.395197  -0.046210
    13  C    0.144617   0.026681  -0.000448   0.003524  -0.000318  -0.000096
    14  C    0.343030   0.028855   0.053451   0.031216  -0.004885   0.000395
    15  C    0.592748   0.477261   0.006489   0.000736   0.760438   0.002351
    16  C   -0.350890  -0.257374  -0.003469  -0.000013   0.173273   0.286135
    17  C    0.223964  -0.000843  -0.127169  -0.581232  -0.000020  -0.000005
    18  C    0.013077  -0.000538  -0.033758   0.191887   0.000087   0.000030
    19  C    0.147755   0.180023   0.001068  -0.000018  -0.190882  -0.503350
    20  C   -0.009231   0.009978  -0.000265   0.000045  -0.042193   0.156629
    21  C    0.011377  -0.005466   0.000036  -0.000005  -1.194360  -0.023776
    22  H   -0.008687  -0.078890   0.001319  -0.000065   0.000753  -0.000749
    23  H   -0.127073  -0.009272  -0.000419   0.000509  -0.000101  -0.000292
    24  H   -0.000395   0.009356  -0.009076  -0.000036  -0.000026   0.000004
    25  H    0.004887  -0.003878  -0.019728  -0.000091  -0.000037   0.000027
    26  H   -0.005487   0.000583   0.000658  -0.015875  -0.000195  -0.000004
    27  H   -0.002638   0.007798  -0.000001   0.000221  -0.013377  -0.000907
    28  H   -0.000132   0.137589  -0.000186  -0.000003   0.000186  -0.000014
    29  H    0.008992   0.001970   0.000049  -0.000008  -0.000859   0.000638
    30  H    0.001583  -0.000088  -0.015855  -0.032273   0.000000   0.000000
    31  H   -0.000815   0.000342   0.000001   0.000000  -0.000264  -0.006714
    32  H   -0.000289   0.000080   0.151629  -0.000663   0.000000   0.000000
    33  H   -0.000952  -0.000008  -0.000405   0.167287  -0.000001   0.000000
    34  H    0.000741   0.000237   0.000000  -0.000002   0.129407  -0.001163
    35  H   -0.000250  -0.000188   0.000000   0.000000  -0.002987   0.141569
               7          8          9         10         11         12
     1  O   -0.034867  -0.543765   0.216384  -0.419438  -0.370087  -0.565447
     2  O    0.349983   0.011766  -0.386768   0.105059  -0.087544  -0.491591
     3  O    0.035472  -0.003071  -0.119754  -0.063880   0.204892  -0.007390
     4  O   -0.001578   0.014473  -0.006749   0.191523   0.099530  -0.000441
     5  O   -0.002094   0.008422   0.001169  -0.000462   0.002423   0.395197
     6  O    0.000915   0.009910  -0.000232  -0.001164   0.000338  -0.046210
     7  C   14.278913  -2.283391  -2.699422   2.174532   1.364196  -2.111173
     8  C   -2.283391  29.633721  -5.670031   0.446225   2.886999  -9.555942
     9  C   -2.699422  -5.670031  20.803554  -5.976148  -1.110798   0.841765
    10  C    2.174532   0.446225  -5.976148  68.334161  -6.501589   6.197598
    11  C    1.364196   2.886999  -1.110798  -6.501589  46.300309  -2.629773
    12  C   -2.111173  -9.555942   0.841765   6.197598  -2.629773  45.513352
    13  C   -2.126716  -5.149172   2.275584 -14.204085 -11.676933   2.416245
    14  C   -0.600987  -2.512926   2.809032 -30.337689 -21.500648  -5.504305
    15  C   -1.309586   7.311148  -0.985295  -1.777242  -2.562632 -14.610143
    16  C   -0.292211 -10.089492   0.561083   2.570508   1.022401   2.242477
    17  C   -0.628573  -0.078741  -4.807617 -18.951246   5.875992   0.739474
    18  C   -0.059203   0.736358   1.026206   3.625954  -2.022441  -0.574637
    19  C    0.379911   1.919566   0.100444  -1.256291  -0.020679 -14.128807
    20  C   -0.544849   0.100136  -0.133771  -0.188215  -0.133942  -3.307665
    21  C    0.140433  -1.708773  -0.151521   0.670124  -0.525109   0.986231
    22  H    0.558052  -0.327392  -0.504379   0.680504  -0.738830   0.956601
    23  H   -0.351856   1.143308  -0.463570   0.099337  -0.294821  -0.142749
    24  H    0.088130  -0.017611   0.283532   0.150409  -0.128283  -0.078859
    25  H   -0.015323   0.220347   0.553631  -0.027137   0.262942  -0.245670
    26  H   -0.012530  -0.052467   0.005671  -0.394126  -0.413511  -0.036037
    27  H   -0.223160   0.458647  -0.006937   0.012143  -0.041647  -0.904947
    28  H   -0.105506   0.008913   0.051527  -0.011951   0.042435   0.041545
    29  H    0.015582  -0.013066   0.042012  -0.042214   0.080972  -0.254720
    30  H    0.012639   0.002389  -0.056020  -0.139850   0.162325   0.003377
    31  H   -0.009116   0.041275   0.000837  -0.004667  -0.000406   0.085601
    32  H   -0.011144  -0.008588   0.034554   0.158686   0.001794   0.001333
    33  H    0.000777  -0.004219   0.013192   0.072422   0.079828   0.003188
    34  H    0.006025   0.008314   0.002651  -0.008558   0.009001  -0.058485
    35  H   -0.001725  -0.013311   0.000189   0.001882  -0.001384   0.015334
              13         14         15         16         17         18
     1  O    0.144617   0.343030   0.592748  -0.350890   0.223964   0.013077
     2  O    0.026681   0.028855   0.477261  -0.257374  -0.000843  -0.000538
     3  O   -0.000448   0.053451   0.006489  -0.003469  -0.127169  -0.033758
     4  O    0.003524   0.031216   0.000736  -0.000013  -0.581232   0.191887
     5  O   -0.000318  -0.004885   0.760438   0.173273  -0.000020   0.000087
     6  O   -0.000096   0.000395   0.002351   0.286135  -0.000005   0.000030
     7  C   -2.126716  -0.600987  -1.309586  -0.292211  -0.628573  -0.059203
     8  C   -5.149172  -2.512926   7.311148 -10.089492  -0.078741   0.736358
     9  C    2.275584   2.809032  -0.985295   0.561083  -4.807617   1.026206
    10  C  -14.204085 -30.337689  -1.777242   2.570508 -18.951246   3.625954
    11  C  -11.676933 -21.500648  -2.562632   1.022401   5.875992  -2.022441
    12  C    2.416245  -5.504305 -14.610143   2.242477   0.739474  -0.574637
    13  C   28.837896  13.635420  -0.840150   0.303933  -6.659874  -1.073734
    14  C   13.635420  63.537687   2.608762  -3.641368 -14.073758  -0.973432
    15  C   -0.840150   2.608762  48.676685 -22.466458   0.158671   0.314944
    16  C    0.303933  -3.641368 -22.466458  52.129399  -0.029490  -0.224416
    17  C   -6.659874 -14.073758   0.158671  -0.029490  51.646907  -7.940052
    18  C   -1.073734  -0.973432   0.314944  -0.224416  -7.940052  13.603225
    19  C   -0.017472   1.937182   5.578506  -5.951145   0.009500   0.060145
    20  C   -0.022131  -0.060532  -2.728455  -4.082815  -0.000599  -0.005182
    21  C    0.031731  -0.318127 -13.979994  -4.823522   0.008015  -0.010908
    22  H    0.347340  -0.223014  -0.958177   0.507796   0.092942  -0.044877
    23  H   -0.040388  -0.154016   0.187519  -0.149978   0.064224   0.007821
    24  H    0.015650   0.063162  -0.006320   0.002159  -0.143364   0.015837
    25  H   -0.317269   0.114334   0.158618  -0.096367  -0.299382   0.009380
    26  H    0.206247   1.358700  -0.002835  -0.029017  -0.133327  -0.242634
    27  H   -0.094954  -0.116712   1.912808  -0.420006  -0.001457   0.026479
    28  H    0.022607  -0.006004  -0.053066   0.020124   0.007613   0.000985
    29  H   -0.005753  -0.002718  -0.069050   0.784414   0.000884   0.000366
    30  H   -0.512773  -0.494410   0.004488  -0.001770   1.497148  -0.185338
    31  H    0.000834   0.007418   0.083062  -0.283709   0.000124  -0.000216
    32  H    0.259569   0.096417  -0.002026   0.000545  -0.544431   0.021498
    33  H    0.003693  -0.435034  -0.003540   0.001063   0.153209   0.134750
    34  H    0.001430   0.008852  -0.634211  -0.046842   0.000368  -0.000409
    35  H    0.000150  -0.001240   0.048975  -0.068356   0.000029  -0.000042
              19         20         21         22         23         24
     1  O    0.147755  -0.009231   0.011377  -0.008687  -0.127073  -0.000395
     2  O    0.180023   0.009978  -0.005466  -0.078890  -0.009272   0.009356
     3  O    0.001068  -0.000265   0.000036   0.001319  -0.000419  -0.009076
     4  O   -0.000018   0.000045  -0.000005  -0.000065   0.000509  -0.000036
     5  O   -0.190882  -0.042193  -1.194360   0.000753  -0.000101  -0.000026
     6  O   -0.503350   0.156629  -0.023776  -0.000749  -0.000292   0.000004
     7  C    0.379911  -0.544849   0.140433   0.558052  -0.351856   0.088130
     8  C    1.919566   0.100136  -1.708773  -0.327392   1.143308  -0.017611
     9  C    0.100444  -0.133771  -0.151521  -0.504379  -0.463570   0.283532
    10  C   -1.256291  -0.188215   0.670124   0.680504   0.099337   0.150409
    11  C   -0.020679  -0.133942  -0.525109  -0.738830  -0.294821  -0.128283
    12  C  -14.128807  -3.307665   0.986231   0.956601  -0.142749  -0.078859
    13  C   -0.017472  -0.022131   0.031731   0.347340  -0.040388   0.015650
    14  C    1.937182  -0.060532  -0.318127  -0.223014  -0.154016   0.063162
    15  C    5.578506  -2.728455 -13.979994  -0.958177   0.187519  -0.006320
    16  C   -5.951145  -4.082815  -4.823522   0.507796  -0.149978   0.002159
    17  C    0.009500  -0.000599   0.008015   0.092942   0.064224  -0.143364
    18  C    0.060145  -0.005182  -0.010908  -0.044877   0.007821   0.015837
    19  C   36.206663  -8.721584  -9.943832  -0.438641  -0.177194  -0.005267
    20  C   -8.721584  22.295529   2.888491   0.006532   0.349476   0.000582
    21  C   -9.943832   2.888491  33.601859   0.173224   0.040036   0.002453
    22  H   -0.438641   0.006532   0.173224   0.940008   0.042118   0.028451
    23  H   -0.177194   0.349476   0.040036   0.042118   0.760663  -0.012214
    24  H   -0.005267   0.000582   0.002453   0.028451  -0.012214   0.508806
    25  H    0.044325  -0.003644  -0.011087  -0.093107  -0.012818  -0.055169
    26  H    0.030664   0.000656  -0.001950   0.003855   0.000508   0.000639
    27  H   -0.010326   0.094744  -0.489020  -0.118637   0.012760  -0.003096
    28  H   -0.007758  -0.001492   0.000370  -0.003178   0.007558  -0.004732
    29  H    0.260133  -0.367412  -0.089411  -0.012347  -0.080297  -0.001148
    30  H    0.000219  -0.000158   0.000152   0.000409   0.000395  -0.002073
    31  H   -0.127754   0.734616  -0.235262  -0.001852   0.008758  -0.000251
    32  H    0.000069   0.000095  -0.000081   0.000859   0.000578   0.001486
    33  H   -0.000712  -0.000154   0.000198   0.000279  -0.000146   0.000360
    34  H    0.254085   0.031270   0.479831   0.002386  -0.000815  -0.000036
    35  H    0.312325  -0.498226   0.224474   0.000447   0.000074  -0.000009
              25         26         27         28         29         30
     1  O    0.004887  -0.005487  -0.002638  -0.000132   0.008992   0.001583
     2  O   -0.003878   0.000583   0.007798   0.137589   0.001970  -0.000088
     3  O   -0.019728   0.000658  -0.000001  -0.000186   0.000049  -0.015855
     4  O   -0.000091  -0.015875   0.000221  -0.000003  -0.000008  -0.032273
     5  O   -0.000037  -0.000195  -0.013377   0.000186  -0.000859   0.000000
     6  O    0.000027  -0.000004  -0.000907  -0.000014   0.000638   0.000000
     7  C   -0.015323  -0.012530  -0.223160  -0.105506   0.015582   0.012639
     8  C    0.220347  -0.052467   0.458647   0.008913  -0.013066   0.002389
     9  C    0.553631   0.005671  -0.006937   0.051527   0.042012  -0.056020
    10  C   -0.027137  -0.394126   0.012143  -0.011951  -0.042214  -0.139850
    11  C    0.262942  -0.413511  -0.041647   0.042435   0.080972   0.162325
    12  C   -0.245670  -0.036037  -0.904947   0.041545  -0.254720   0.003377
    13  C   -0.317269   0.206247  -0.094954   0.022607  -0.005753  -0.512773
    14  C    0.114334   1.358700  -0.116712  -0.006004  -0.002718  -0.494410
    15  C    0.158618  -0.002835   1.912808  -0.053066  -0.069050   0.004488
    16  C   -0.096367  -0.029017  -0.420006   0.020124   0.784414  -0.001770
    17  C   -0.299382  -0.133327  -0.001457   0.007613   0.000884   1.497148
    18  C    0.009380  -0.242634   0.026479   0.000985   0.000366  -0.185338
    19  C    0.044325   0.030664  -0.010326  -0.007758   0.260133   0.000219
    20  C   -0.003644   0.000656   0.094744  -0.001492  -0.367412  -0.000158
    21  C   -0.011087  -0.001950  -0.489020   0.000370  -0.089411   0.000152
    22  H   -0.093107   0.003855  -0.118637  -0.003178  -0.012347   0.000409
    23  H   -0.012818   0.000508   0.012760   0.007558  -0.080297   0.000395
    24  H   -0.055169   0.000639  -0.003096  -0.004732  -0.001148  -0.002073
    25  H    0.576353  -0.000089   0.010382  -0.018265   0.002417  -0.003671
    26  H   -0.000089   0.468956  -0.007141  -0.000244  -0.000617  -0.007786
    27  H    0.010382  -0.007141   0.684653  -0.002333   0.000440   0.000082
    28  H   -0.018265  -0.000244  -0.002333   0.386066  -0.000766   0.000101
    29  H    0.002417  -0.000617   0.000440  -0.000766   0.481751   0.000003
    30  H   -0.003671  -0.007786   0.000082   0.000101   0.000003   0.491514
    31  H    0.000025   0.000179   0.006073   0.000121  -0.008242  -0.000001
    32  H    0.002107   0.001832  -0.000244   0.000099  -0.000025  -0.017441
    33  H   -0.000020  -0.016100  -0.000016   0.000010  -0.000054   0.006135
    34  H    0.000095   0.000343  -0.053143   0.000138   0.000277   0.000001
    35  H   -0.000043  -0.000031  -0.000228   0.000019   0.002625   0.000000
              31         32         33         34         35
     1  O   -0.000815  -0.000289  -0.000952   0.000741  -0.000250
     2  O    0.000342   0.000080  -0.000008   0.000237  -0.000188
     3  O    0.000001   0.151629  -0.000405   0.000000   0.000000
     4  O    0.000000  -0.000663   0.167287  -0.000002   0.000000
     5  O   -0.000264   0.000000  -0.000001   0.129407  -0.002987
     6  O   -0.006714   0.000000   0.000000  -0.001163   0.141569
     7  C   -0.009116  -0.011144   0.000777   0.006025  -0.001725
     8  C    0.041275  -0.008588  -0.004219   0.008314  -0.013311
     9  C    0.000837   0.034554   0.013192   0.002651   0.000189
    10  C   -0.004667   0.158686   0.072422  -0.008558   0.001882
    11  C   -0.000406   0.001794   0.079828   0.009001  -0.001384
    12  C    0.085601   0.001333   0.003188  -0.058485   0.015334
    13  C    0.000834   0.259569   0.003693   0.001430   0.000150
    14  C    0.007418   0.096417  -0.435034   0.008852  -0.001240
    15  C    0.083062  -0.002026  -0.003540  -0.634211   0.048975
    16  C   -0.283709   0.000545   0.001063  -0.046842  -0.068356
    17  C    0.000124  -0.544431   0.153209   0.000368   0.000029
    18  C   -0.000216   0.021498   0.134750  -0.000409  -0.000042
    19  C   -0.127754   0.000069  -0.000712   0.254085   0.312325
    20  C    0.734616   0.000095  -0.000154   0.031270  -0.498226
    21  C   -0.235262  -0.000081   0.000198   0.479831   0.224474
    22  H   -0.001852   0.000859   0.000279   0.002386   0.000447
    23  H    0.008758   0.000578  -0.000146  -0.000815   0.000074
    24  H   -0.000251   0.001486   0.000360  -0.000036  -0.000009
    25  H    0.000025   0.002107  -0.000020   0.000095  -0.000043
    26  H    0.000179   0.001832  -0.016100   0.000343  -0.000031
    27  H    0.006073  -0.000244  -0.000016  -0.053143  -0.000228
    28  H    0.000121   0.000099   0.000010   0.000138   0.000019
    29  H   -0.008242  -0.000025  -0.000054   0.000277   0.002625
    30  H   -0.000001  -0.017441   0.006135   0.000001   0.000000
    31  H    0.470934   0.000002  -0.000002  -0.000745  -0.018853
    32  H    0.000002   0.346367  -0.000201   0.000004   0.000000
    33  H   -0.000002  -0.000201   0.347748  -0.000013   0.000001
    34  H   -0.000745   0.000004  -0.000013   0.397827   0.000403
    35  H   -0.018853   0.000000   0.000001   0.000403   0.385812
 Mulliken charges:
               1
     1  O   -0.163199
     2  O   -0.516176
     3  O   -0.665961
     4  O   -0.694289
     5  O   -0.670344
     6  O   -0.678782
     7  C    0.019450
     8  C   -0.929959
     9  C   -0.544001
    10  C    0.814888
    11  C   -1.635321
    12  C    0.815676
    13  C    0.209115
    14  C    0.327891
    15  C    0.104967
    16  C   -1.296601
    17  C    0.522115
    18  C   -0.397211
    19  C    0.079131
    20  C    0.183735
    21  C    0.253167
    22  H    0.208946
    23  H    0.292381
    24  H    0.296950
    25  H    0.262924
    26  H    0.292514
    27  H    0.283700
    28  H    0.487624
    29  H    0.265182
    30  H    0.286547
    31  H    0.258667
    32  H    0.505531
    33  H    0.477438
    34  H    0.470738
    35  H    0.472567
 Sum of Mulliken charges =   0.00000
 Mulliken charges with hydrogens summed into heavy atoms:
               1
     1  O   -0.163199
     2  O   -0.028552
     3  O   -0.160429
     4  O   -0.216851
     5  O   -0.199606
     6  O   -0.206216
     7  C    0.228396
     8  C   -0.637578
     9  C    0.015873
    10  C    0.814888
    11  C   -1.635321
    12  C    0.815676
    13  C    0.209115
    14  C    0.620405
    15  C    0.388667
    16  C   -1.031419
    17  C    0.808662
    18  C   -0.397211
    19  C    0.079131
    20  C    0.442402
    21  C    0.253167
 Electronic spatial extent (au):  <R**2>=           7872.7824
 Charge=              0.0000 electrons
 Dipole moment (field-independent basis, Debye):
    X=             -3.3204    Y=              1.1346    Z=             -0.7236  Tot=              3.5828
 Quadrupole moment (field-independent basis, Debye-Ang):
   XX=           -136.7566   YY=           -122.3782   ZZ=           -115.4599
   XY=              0.1390   XZ=            -17.6957   YZ=              5.8801
 Traceless Quadrupole moment (field-independent basis, Debye-Ang):
   XX=            -11.8917   YY=              2.4867   ZZ=              9.4050
   XY=              0.1390   XZ=            -17.6957   YZ=              5.8801
 Octapole moment (field-independent basis, Debye-Ang**2):
  XXX=           -104.6691  YYY=            -24.6716  ZZZ=             14.7205  XYY=            -26.0756
  XXY=             76.8669  XXZ=           -106.8639  XZZ=             32.6567  YZZ=              5.7235
  YYZ=             13.7499  XYZ=              6.0748
 Hexadecapole moment (field-independent basis, Debye-Ang**3):
 XXXX=          -8121.3936 YYYY=          -1268.8059 ZZZZ=           -539.7275 XXXY=           -243.7854
 XXXZ=           -823.7863 YYYX=            115.3049 YYYZ=             91.9232 ZZZX=             10.8777
 ZZZY=            -22.6869 XXYY=          -1802.1543 XXZZ=          -1442.9424 YYZZ=           -354.9839
 XXYZ=            108.6887 YYXZ=             34.8247 ZZXY=            -10.3655
 N-N= 1.641522291888D+03 E-N=-5.688193964404D+03  KE= 1.024958979210D+03
 1|1|UNPC-MGLAB|SP|RHF|6-31++G|C15H14O6|USER|18-Feb-2025|0||# hf/6-31++
 g geom=connectivity||9064||0,1|O,0,0.4056,0.6852,-0.3567|O,0,-0.6774,-
 2.8272,0.0639|O,0,4.3934,-1.9411,0.4537|O,0,4.6486,2.7719,-0.1473|O,0,
 -4.1299,0.979,2.1223|O,0,-5.8277,0.7778,-0.0685|C,0,0.0772,-1.6546,0.3
 517|C,0,-0.3381,-0.5205,-0.596|C,0,1.5584,-1.9631,0.1509|C,0,2.3661,-0
 .7033,0.0709|C,0,1.7552,0.5287,-0.1865|C,0,-1.808,-0.1719,-0.4515|C,0,
 3.7578,-0.7555,0.2274|C,0,2.5213,1.696,-0.2476|C,0,-2.3033,0.2482,0.78
 08|C,0,-2.6566,-0.2741,-1.5515|C,0,4.5224,0.4089,0.1541|C,0,3.9038,1.6
 348,-0.0794|C,0,-3.6545,0.5681,0.9138|C,0,-4.0077,0.0457,-1.4185|C,0,-
 4.5067,0.4668,-0.186|H,0,-0.0919,-1.3767,1.3993|H,0,-0.1546,-0.8269,-1
 .6358|H,0,1.7034,-2.541,-0.7711|H,0,1.8997,-2.5978,0.978|H,0,2.0345,2.
 6508,-0.4329|H,0,-1.6415,0.34,1.6382|H,0,-0.3756,-3.5253,0.6699|H,0,-2
 .2827,-0.6009,-2.5179|H,0,5.6018,0.3689,0.2791|H,0,-4.6605,-0.0374,-2.
 2834|H,0,5.3492,-1.781,0.5349|H,0,4.0583,3.5263,-0.3156|H,0,-3.3995,0.
 988,2.7646|H,0,-6.261,0.6492,-0.9297||Version=IA32W-G09RevD.01|State=1
 -A|HF=-1024.9195105|RMSD=2.937e-009|Dipole=1.3041319,-0.4542549,-0.282
 4445|Quadrupole=-8.8116859,1.7763338,7.035352,0.2506154,13.1530843,-4.
 3858503|PG=C01 [X(C15H14O6)]||@


 DEMOCRATS BUY MOST OF THE BOOKS THAT HAVE BEEN
 BANNED; REPUBLICANS FORM CENSORSHIP COMMITTEES AND
 READ THEM AS A GROUP.
 Job cpu time:       0 days  0 hours  7 minutes 47.0 seconds.
 File lengths (MBytes):  RWF=     55 Int=      0 D2E=      0 Chk=      5 Scr=      1
 Normal termination of Gaussian 09 at Tue Feb 18 11:46:32 2025.
